# ODT 1.0
# Table Start
# Title: mmArchive Data Table, Fri Jul 31 18:43:24 BST 2015
# Columns: \
# {Oxs_TimeDriver::Simulation time} Oxs_TimeDriver::mx Oxs_TimeDriver::my Oxs_TimeDriver::mz
# Units: \
# s               {}              {}              {}             
  0.0                    0.0                 0.0                 1.0
  5.0e-12                0.1                 -0.1                0.9
  1.0e-11                0.2                 -0.2                0.8
  1.5e-11                0.3                 -0.3                0.7
  2.0e-11                0.4                 -0.4                0.6
  2.5e-11                0.5                 -0.5                0.5
# Table End
